<?xml version="1.0" encoding="UTF-8"?>

<!-- generated on 2024-05-30 12:51:21 by Eclipse SUMO GUI Version 1.19.0
<configuration xmlns:xsi="http://www.w3.org/2001/XMLSchema-instance" xsi:noNamespaceSchemaLocation="http://sumo.dlr.de/xsd/sumoConfiguration.xsd">

    <input>
        <net-file value="osm.net.xml"/>
        <route-files value="osm.rou.xml"/>
        <additional-files value="osm.add.xml"/>
    </input>

    <output>
        <summary-output value="summary_out.xml"/>
        <tripinfo-output value="tripinfo_out.xml"/>
        <statistic-output value="statistic_out.xml"/>
    </output>

    <processing>
        <lateral-resolution value="1.6"/>
        <time-to-teleport value="-1"/>
    </processing>

</configuration>
-->

<tripinfos xmlns:xsi="http://www.w3.org/2001/XMLSchema-instance" xsi:noNamespaceSchemaLocation="http://sumo.dlr.de/xsd/tripinfo_file.xsd">
</tripinfos>
